22
Image 0  Energy = -383.5281735303
C  -0.7781260000 -1.0675610000  0.3210590000
C   1.3025530000  0.0521200000 -0.0282990000
C  -0.9719930000  1.4562490000  0.8236570000
C   1.9812290000 -0.4184330000  1.2501750000
C   2.2640330000  0.4351680000 -1.1331070000
N   0.2911640000 -0.8768210000 -0.5003990000
N  -2.0191630000 -1.3720060000 -0.2331120000
O  -1.6647340000  1.6302230000 -0.4018370000
H  -2.2586320000  0.8701390000 -0.4758990000
H   0.0278490000 -0.6783120000 -1.4584950000
H  -0.6097590000 -1.3678560000  1.3411780000
H   0.6812640000  0.9183000000  0.2869410000
H  -2.5732630000 -2.0573610000  0.2574120000
H  -2.0524280000 -1.5045420000 -1.2338230000
H  -0.3689930000  2.3513920000  0.9917470000
H  -1.6396090000  1.2942150000  1.6746530000
H   2.7644490000  0.2914620000  1.5228460000
H   1.7251140000  0.7306950000 -2.0377940000
H   2.4355930000 -1.4060980000  1.1342150000
H   1.2730050000 -0.4472240000  2.0805790000
H   2.8503450000  1.2986970000 -0.8143220000
H   2.9600090000 -0.3688060000 -1.3889100000
22
Image 1  Energy = -383.5292433540
C  -0.7788470317 -1.0578435216  0.3220295959
C   1.3046338249  0.0514130685 -0.0285298773
C  -0.9795905368  1.4493897049  0.8249225429
C   1.9817324818 -0.4189914577  1.2489183065
C   2.2649762249  0.4341480459 -1.1335430255
N   0.2921717035 -0.8786231980 -0.5008733252
N  -2.0170230054 -1.3710667486 -0.2321390730
O  -1.6647874680  1.6299760182 -0.4014251034
H  -2.2583518668  0.8707545695 -0.4762128644
H   0.0275502073 -0.6779499026 -1.4580425106
H  -0.6096662234 -1.3683009851  1.3409795766
H   0.6825430411  0.9183669095  0.2859222315
H  -2.5728423662 -2.0566897019  0.2575499142
H  -2.0517562356 -1.5044585629 -1.2334716281
H  -0.3685339622  2.3499816210  0.9915746509
H  -1.6403187626  1.2955970062  1.6742955294
H   2.7643138003  0.2912053081  1.5227623631
H   1.7251996140  0.7305582978 -2.0375147936
H   2.4354758062 -1.4059710522  1.1342002213
H   1.2729090846 -0.4474107969  2.0803151797
H   2.8503562250  1.2983490075 -0.8143574702
H   2.9597624439 -0.3687936293 -1.3888954393
22
Image 2  Energy = -383.5301187376
C  -0.7795234621 -1.0483756283  0.3237964672
C   1.3060558666  0.0509723119 -0.0289069201
C  -0.9843202915  1.4441669657  0.8253227092
C   1.9821214602 -0.4194013414  1.2481690067
C   2.2657710939  0.4335052974 -1.1339216354
N   0.2933703870 -0.8800864400 -0.5011870018
N  -2.0154189714 -1.3702293785 -0.2315773270
O  -1.6652305843  1.6297572585 -0.4010577483
H  -2.2584275676  0.8711612259 -0.4768220345
H   0.0272826590 -0.6775534365 -1.4576793066
H  -0.6096085536 -1.3685212544  1.3404189721
H   0.6840838553  0.9181855553  0.2848008361
H  -2.5721645292 -2.0557904120  0.2577140849
H  -2.0509831291 -1.5042619211 -1.2328623649
H  -0.3689792800  2.3468133168  0.9912860347
H  -1.6422427688  1.2967037369  1.6749821584
H   2.7642104519  0.2909327512  1.5226653992
H   1.7253055722  0.7303859123 -2.0372330712
H   2.4354757189 -1.4060526657  1.1341491671
H   1.2729585429 -0.4475988227  2.0798282301
H   2.8504019712  1.2979601445 -0.8144249697
H   2.9597685564 -0.3690331735 -1.3889956831
22
Image 3  Energy = -383.5309524066
C  -0.7802511275 -1.0391379785  0.3257466612
C   1.3071615910  0.0506419639 -0.0293715732
C  -0.9878543150  1.4394916170  0.8253927343
C   1.9824678378 -0.4197337672  1.2476488405
C   2.2664857909  0.4330373175 -1.1342584965
N   0.2945669261 -0.8812927056 -0.5013263215
N  -2.0140495408 -1.3692949244 -0.2310762876
O  -1.6658672687  1.6296269929 -0.4007132903
H  -2.2587605721  0.8713961565 -0.4776188230
H   0.0270514838 -0.6771407961 -1.4573275050
H  -0.6095582761 -1.3685959257  1.3397846234
H   0.6857864531  0.9179140059  0.2836166081
H  -2.5713393676 -2.0547747060  0.2579293297
H  -2.0501180868 -1.5040054102 -1.2322086890
H  -0.3697281989  2.3428212701  0.9909648531
H  -1.6446662001  1.2976716579  1.6760227261
H   2.7641514413  0.2906668264  1.5225732673
H   1.7254194990  0.7301992269 -2.0369785547
H   2.4355370339 -1.4062410089  1.1340768188
H   1.2730582292 -0.4477923720  2.0792553801
H   2.8505035267  1.2975825455 -0.8145064379
H   2.9599101394 -0.3693999826 -1.3891608592
22
Image 4  Energy = -383.5317732221
C  -0.7810230967 -1.0301268020  0.3277447214
C   1.3081074451  0.0503634385 -0.0298730470
C  -0.9908747396  1.4349742536  0.8253488397
C   1.9828026062 -0.4200237995  1.2472345619
C   2.2671604729  0.4326511165 -1.1345728992
N   0.2956867595 -0.8822919736 -0.5013454196
N  -2.0128337313 -1.3682060139 -0.2305812488
O  -1.6666462119  1.6295490885 -0.4003761105
H  -2.2592714038  0.8715263717 -0.4785534818
H   0.0268625049 -0.6767223373 -1.4569478292
H  -0.6095151504 -1.3685428336  1.3391443625
H   0.6876065944  0.9176254480  0.2823888513
H  -2.5704108785 -2.0536863260  0.2582045952
H  -2.0491695361 -1.5037035566 -1.2315439354
H  -0.3705501696  2.3383615589  0.9906412955
H  -1.6472947116  1.2985483436  1.6771347618
H   2.7641382204  0.2904148947  1.5224924034
H   1.7255388010  0.7300067670 -2.0367588723
H   2.4356327651 -1.4064854279  1.1339906053
H   1.2731703925 -0.4479926609  2.0786534995
H   2.8506626150  1.2972311181 -0.8145950538
H   2.9601274512 -0.3698306639 -1.3893655954
22
Image 5  Energy = -383.5325887719
C  -0.7818246089 -1.0213374238  0.3297556124
C   1.3089659214  0.0501153786 -0.0303827016
C  -0.9936772510  1.4304810064  0.8252596365
C   1.9831395502 -0.4202890888  1.2468726550
C   2.2678170795  0.4323061272 -1.1348769059
N   0.2967096421 -0.8831216514 -0.5012776436
N  -2.0117503593 -1.3669495145 -0.2300810021
O  -1.6675403744  1.6294891382 -0.4000269483
H  -2.2599158482  0.8715926773 -0.4796009018
H   0.0267144693 -0.6763011438 -1.4565317578
H  -0.6094821848 -1.3683686571  1.3385180780
H   0.6895260744  0.9173568620  0.2811278754
H  -2.5693986959 -2.0525420734  0.2585371615
H  -2.0481441189 -1.5033635833 -1.2308723572
H  -0.3713501332  2.3335839700  0.9903274712
H  -1.6500094398  1.2993453196  1.6782120984
H   2.7641678274  0.2901777782  1.5224244097
H   1.7256641221  0.7298115804 -2.0365736410
H   2.4357492873 -1.4067598545  1.1338941647
H   1.2732815615 -0.4482000126  2.0780457621
H   2.8508748118  1.2969064619 -0.8146893674
H   2.9603896664 -0.3702932922 -1.3895966913
22
Image 6  Energy = -383.5334022057
C  -0.7826457659 -1.0127635061  0.3317683325
C   1.3097728595  0.0498906059 -0.0308858899
C  -0.9963971795  1.4259742288  0.8251418814
C   1.9834845682 -0.4205385229  1.2465400698
C   2.2684669928  0.4319846804 -1.1351768950
N   0.2976365903 -0.8838114235 -0.5011422136
N  -2.0107931714 -1.3655252144 -0.2295725001
O  -1.6685301876  1.6294242004 -0.3996515424
H  -2.2606700552  0.8716167825 -0.4807464145
H   0.0266031658 -0.6758774229 -1.4560819946
H  -0.6094620119 -1.3680780974  1.3379137038
H   0.6915374227  0.9171291881  0.2798401235
H  -2.5683146346 -2.0513503305  0.2589209162
H  -2.0470475017 -1.5029908658 -1.2301924198
H  -0.3720877260  2.3285576933  0.9900279743
H  -1.6527619330  1.3000609676  1.6792189663
H   2.7642361783  0.2899539595  1.5223691604
H   1.7257969391  0.7296145512 -2.0364199923
H   2.4358793892 -1.4070503158  1.1337892682
H   1.2733883262 -0.4484145026  2.0774412832
H   2.8511345731  1.2966047411 -0.8147899216
H   2.9606801621 -0.3707713922 -1.3898468880
22
Image 7  Energy = -383.5342154994
C  -0.7834806449 -1.0043970229  0.3337773396
C   1.3105476463  0.0496870137 -0.0313753698
C  -0.9990991242  1.4214493073  0.8249979630
C   1.9838401183 -0.4207763712  1.2462268478
C   2.2691157871  0.4316788100 -1.1354760377
N   0.2984752063 -0.8843849377 -0.5009510400
N  -2.0099585283 -1.3639370148 -0.2290535396
O  -1.6696013018  1.6293404452 -0.3992432482
H  -2.2615202770  0.8716101772 -0.4819798939
H   0.0265236720 -0.6754505611 -1.4556040133
H  -0.6094566846 -1.3676754038  1.3373355789
H   0.6936368270  0.9169555642  0.2785303505
H  -2.5671675490 -2.0501163853  0.2593492012
H  -2.0458847038 -1.5025899276 -1.2295020219
H  -0.3727459216  2.3233193577  0.9897441584
H  -1.6555319939  1.3006900030  1.6801467131
H   2.7643391698  0.2897411625  1.5223260119
H   1.7259387729  0.7294157726 -2.0362944763
H   2.4360191314 -1.4073490416  1.1336767774
H   1.2734911146 -0.4486360681  2.0768434578
H   2.8514367614  1.2963213363 -0.8148978203
H   2.9609895238 -0.3712562120 -1.3901119332
22
Image 8  Energy = -383.5350304752
C  -0.7843250838 -0.9962278198  0.3357784769
C   1.3113023137  0.0495038627 -0.0318478893
C  -1.0018137565  1.4169095275  0.8248278579
C   1.9842070655 -0.4210048099  1.2459284430
C   2.2697661313  0.4313843818 -1.1357757075
N   0.2992337991 -0.8848606417 -0.5007119737
N  -2.0092421541 -1.3621902433 -0.2285229822
O  -1.6707437980  1.6292301238 -0.3988019056
H  -2.2624575667  0.8715794186 -0.4832933613
H   0.0264712505 -0.6750198555 -1.4551031411
H  -0.6094678776 -1.3671644286  1.3367865732
H   0.6958208367  0.9168449147  0.2772026194
H  -2.5659651250 -2.0488443655  0.2598160400
H  -2.0446603281 -1.5021644159 -1.2287986314
H  -0.3733184936  2.3178915716  0.9894759843
H  -1.6583112337  1.3012272731  1.6809969722
H   2.7644732179  0.2895372000  1.5222943038
H   1.7260908036  0.7292151716 -2.0361939614
H   2.4361662278 -1.4076514213  1.1335571574
H   1.2735915968 -0.4488645451  2.0762534650
H   2.8517770043  1.2960520664 -0.8150141437
H   2.9613121702 -0.3717429610 -1.3903891871
22
Image 9  Energy = -383.5358489076
C  -0.7851760353 -0.9882437823  0.3377682026
C   1.3120451284  0.0493405399 -0.0323024236
C  -1.0045543355  1.4123564274  0.8246321121
C   1.9845854444 -0.4212249836  1.2456427432
C   2.2704192159  0.4310986980 -1.1360766524
N   0.2999196306 -0.8852524821 -0.5004305233
N  -2.0086387120 -1.3602911609 -0.2279794510
O  -1.6719509556  1.6290897707 -0.3983316919
H  -2.2634756465  0.8715283830 -0.4846801009
H   0.0264416547 -0.6745847815 -1.4545835683
H  -0.6094970529 -1.3665484039  1.3362683409
H   0.6980853368  0.9168034381  0.2758606567
H  -2.5647139667 -2.0475372423  0.2603160943
H  -2.0433785696 -1.5017171560 -1.2280800639
H  -0.3738044957  2.3122905627  0.9892229448
H  -1.6610963136  1.3016690759  1.6817749029
H   2.7646353163  0.2893401389  1.5222734844
H   1.7262539590  0.7290126150 -2.0361155736
H   2.4363193740 -1.4079546205  1.1334306793
H   1.2736917264 -0.4490996492  2.0756715773
H   2.8521517066  1.2957935082 -0.8151397802
H   2.9616445881 -0.3722288892 -1.3906769006
22
Image 10  Energy = -383.5366726671
C  -0.7860311318 -0.9804309219  0.3397439548
C   1.3127822238  0.0491962171 -0.0327388228
C  -1.0073245505  1.4077874631  0.8244117015
C   1.9849750371 -0.4214375100  1.2453683223
C   2.2710757349  0.4308197644 -1.1363793589
N   0.3005388646 -0.8855707300 -0.5001105591
N  -2.0081419810 -1.3582464619 -0.2274221018
O  -1.6732184017  1.6289183062 -0.3978389023
H  -2.2645695098  0.8714598601 -0.4861342454
H   0.0264310511 -0.6741449386 -1.4540486989
H  -0.6095455200 -1.3658299170  1.3357816874
H   0.7004253844  0.9168352431  0.2745079463
H  -2.5634198925 -2.0461972599  0.2608448458
H  -2.0420433034 -1.5012501777 -1.2273441363
H  -0.3742059661  2.3065288569  0.9889843810
H  -1.6638862354  1.3020133669  1.6824866312
H   2.7648229198  0.2891483633  1.5222631276
H   1.7264288803  0.7288080006 -2.0360568055
H   2.4364777658 -1.4082568010  1.1332975686
H   1.2737932593 -0.4493410141  2.0750978398
H   2.8525577753  1.2955427752 -0.8152754387
H   2.9619845929 -0.3727124778 -1.3909739278
22
Image 11  Energy = -383.5375038040
C  -0.7868885803 -0.9727737083  0.3417043541
C   1.3135181062  0.0490701236 -0.0331577331
C  -1.0101232126  1.4031960084  0.8241679432
C   1.9853755130 -0.4216428326  1.2451042610
C   2.2717360652  0.4305457895 -1.1366839938
N   0.3010967895 -0.8858227512 -0.4997552422
N  -2.0077454778 -1.3560631494 -0.2268502501
O  -1.6745430398  1.6287161713 -0.3973304145
H  -2.2657350723  0.8713759594 -0.4876506522
H   0.0264361425 -0.6737000851 -1.4535008318
H  -0.6096144690 -1.3650109380  1.3353265920
H   0.7028355644  0.9169427165  0.2731476846
H  -2.5620878835 -2.0448259419  0.2613983916
H  -2.0406580858 -1.5007648800 -1.2265888904
H  -0.3745266239  2.3006165516  0.9887596255
H  -1.6666807340  1.3022595554  1.6831378079
H   2.7650339189  0.2889605291  1.5222629214
H   1.7266158968  0.7286013094 -2.0360156369
H   2.4366409718 -1.4085567655  1.1331580364
H   1.2738977057 -0.4495881942  2.0745322083
H   2.8529926137  1.2952975326 -0.8154216390
H   2.9623308875 -0.3731929946 -1.3912795320
22
Image 12  Energy = -383.5383443027
C  -0.7877473106 -0.9652554443  0.3436491162
C   1.3142559844  0.0489616738 -0.0335600304
C  -1.0129462560  1.3985729157  0.8239016567
C   1.9857864532 -0.4218414109  1.2448498531
C   2.2724004271  0.4302752759 -1.1369908864
N   0.3015982094 -0.8860138988 -0.4993671601
N  -2.0074428219 -1.3537484007 -0.2262634367
O  -1.6759223470  1.6284844965 -0.3968125625
H  -2.2669689115  0.8712784099 -0.4892248257
H   0.0264540123 -0.6732500181 -1.4529417206
H  -0.6097049397 -1.3640929653  1.3349025979
H   0.7053103860  0.9171268138  0.2717827359
H  -2.5607220944 -2.0434241851  0.2619733610
H  -2.0392261506 -1.5002621359 -1.2258125626
H  -0.3747713971  2.2945614731  0.9885479951
H  -1.6694799425  1.3024080702  1.6837335521
H   2.7652666078  0.2887755945  1.5222726601
H   1.7268152407  0.7283925045 -2.0359901778
H   2.4368087391 -1.4088536763  1.1330122984
H   1.2740063610 -0.4498406998  2.0739745533
H   2.8534539854  1.2950558339 -0.8155787628
H   2.9626827614 -0.3736702194 -1.3915932434
22
Image 13  Energy = -383.5391963582
C  -0.7886067685 -0.9578585642  0.3455789901
C   1.3149981282  0.0488703852 -0.0339467107
C  -1.0157887235  1.3939073789  0.8236133720
C   1.9862075158 -0.4220334999  1.2446044100
C   2.2730692647  0.4300068603 -1.1373001550
N   0.3020475452 -0.8861480891 -0.4989485276
N  -2.0072278773 -1.3513091507 -0.2256616816
O  -1.6773539504  1.6282246714 -0.3962906553
H  -2.2682680898  0.8711687196 -0.4908528321
H   0.0264821207 -0.6727945421 -1.4523726178
H  -0.6098178124 -1.3630771396  1.3345089261
H   0.7078444987  0.9173874385  0.2704156341
H  -2.5593261384 -2.0419926726  0.2625669815
H  -2.0377504439 -1.4997424345 -1.2250135179
H  -0.3749458772  2.2883696387  0.9883487679
H  -1.6722837638  1.3024600224  1.6842779396
H   2.7655194943  0.2885926726  1.5222921595
H   1.7270269003  0.7281816069 -2.0359789706
H   2.4369809733 -1.4091470487  1.1328605668
H   1.2741202454 -0.4500980430  2.0734248278
H   2.8539399284  1.2948160092 -0.8157471093
H   2.9630398252 -0.3741442093 -1.3919147876
22
Image 14  Energy = -383.5400620250
C  -0.7894671196 -0.9505650894  0.3474953288
C   1.3157460466  0.0487960731 -0.0343188378
C  -1.0186454183  1.3891880801  0.8233031226
C   1.9866384018 -0.4222193712  1.2443672312
C   2.2737427252  0.4297393840 -1.1376120542
N   0.3024489863 -0.8862283133 -0.4985012764
N  -2.0070948327 -1.3487520208 -0.2250448706
O  -1.6788355144  1.6279378047 -0.3957688151
H  -2.2696299646  0.8710484067 -0.4925312417
H   0.0265182342 -0.6723334373 -1.4517944375
H  -0.6099538217 -1.3619643353  1.3341446628
H   0.7104330080  0.9177236250  0.2690485430
H  -2.5579030244 -2.0405318001  0.2631768560
H  -2.0362336414 -1.4992060385 -1.2241905240
H  -0.3750560234  2.2820453936  0.9881611835
H  -1.6750918767  1.3024168548  1.6847742285
H   2.7657913373  0.2884110507  1.5223213134
H   1.7272508655  0.7279686083 -2.0359806186
H   2.4371576463 -1.4094365501  1.1327030611
H   1.2742401886 -0.4503597313  2.0728830212
H   2.8544488029  1.2945767235 -0.8159268668
H   2.9634019909 -0.3746153086 -1.3922439997
22
Image 15  Energy = -383.5254148937
C  -0.7731426850 -1.0667458038  0.3136743595
C   1.3025829868  0.0480298794 -0.0293941306
C  -0.9634933337  1.4789597848  0.8317639158
C   1.9774619891 -0.4196685730  1.2474433419
C   2.2609576644  0.4339619365 -1.1316735863
N   0.3024061967 -0.8930831424 -0.5110554176
N  -1.9978367464 -1.4119648298 -0.2379855403
O  -1.6446987362  1.6365411138 -0.4074662896
H  -2.2360192871  0.8752185689 -0.4541428803
H   0.0238350845 -0.6813766417 -1.4641703936
H  -0.6051888169 -1.3941247366  1.3373633085
H   0.6545377963  0.9032887597  0.2952981168
H  -2.5888198761 -2.0712044054  0.2488256087
H  -2.0700982114 -1.5113476234 -1.2414384020
H  -0.3821238691  2.4166801332  0.9900214351
H  -1.6226917443  1.3141737341  1.6828596089
H   2.7579464588  0.2911986561  1.5205936039
H   1.7217966434  0.7321241907 -2.0337936272
H   2.4332804884 -1.4042011559  1.1363499662
H   1.2718040655 -0.4448645778  2.0819559737
H   2.8415965997  1.2981727592 -0.8114620310
H   2.9558143175 -0.3661280451 -1.3851019106
22
Image 16  Energy = -383.5260012412
C  -0.7728393968 -1.0620347593  0.3169920130
C   1.3030334519  0.0476563486 -0.0299734283
C  -0.9666503614  1.4775603108  0.8313727180
C   1.9778114551 -0.4199439543  1.2471100331
C   2.2614128343  0.4339734882 -1.1317729656
N   0.3016160150 -0.8931393334 -0.5099202151
N  -1.9984402029 -1.4107988853 -0.2384105970
O  -1.6451547807  1.6359066185 -0.4055713198
H  -2.2365243939  0.8754756168 -0.4554009065
H   0.0241522362 -0.6810579696 -1.4635080941
H  -0.6051954085 -1.3931059236  1.3348475906
H   0.6569441129  0.9031184889  0.2938138220
H  -2.5869720083 -2.0698891980  0.2493997214
H  -2.0686875232 -1.5108011861 -1.2405284673
H  -0.3834522817  2.4108014859  0.9896685757
H  -1.6244675007  1.3152499695  1.6828669755
H   2.7581207368  0.2911577036  1.5205032763
H   1.7217588429  0.7319304861 -2.0338263492
H   2.4334260652 -1.4047129364  1.1362646018
H   1.2717259170 -0.4451418999  2.0813387922
H   2.8420609485  1.2982136113 -0.8113957050
H   2.9562282315 -0.3667780989 -1.3854050399
22
Image 17  Energy = -383.5265232645
C  -0.7735150762 -1.0571608964  0.3188720314
C   1.3034631883  0.0472704801 -0.0304302954
C  -0.9697745899  1.4755684849  0.8311681640
C   1.9781703571 -0.4202108186  1.2467985788
C   2.2619255938  0.4338544528 -1.1319791563
N   0.3012744885 -0.8930504500 -0.5089989701
N  -1.9983258801 -1.4091147778 -0.2380732553
O  -1.6457420959  1.6355092317 -0.4041205536
H  -2.2371602404  0.8755440907 -0.4566571030
H   0.0243886288 -0.6807897878 -1.4627452271
H  -0.6050526209 -1.3923936456  1.3334142800
H   0.6593450380  0.9030345332  0.2923571518
H  -2.5853695908 -2.0687927838  0.2500490152
H  -2.0672811769 -1.5103476593 -1.2400207731
H  -0.3844053718  2.4053722716  0.9893776489
H  -1.6264006032  1.3162197077  1.6830252087
H   2.7582901854  0.2910915749  1.5204122885
H   1.7217576463  0.7317382138 -2.0338437640
H   2.4335673080 -1.4051895055  1.1361735840
H   1.2716652371 -0.4454211709  2.0807122040
H   2.8425135367  1.2982288645 -0.8113401033
H   2.9565730312 -0.3673204255 -1.3856859252
22
Image 18  Energy = -383.5270307566
C  -0.7743814328 -1.0521740002  0.3203338586
C   1.3039334842  0.0469204248 -0.0308034866
C  -0.9727364108  1.4731202728  0.8310764473
C   1.9785324584 -0.4204778941  1.2465099240
C   2.2624574005  0.4336738716 -1.1322278684
N   0.3011071801 -0.8929138180 -0.5082464738
N  -1.9981307227 -1.4072693221 -0.2376425410
O  -1.6465374407  1.6352308094 -0.4030372785
H  -2.2378653407  0.8755401546 -0.4579307293
H   0.0245893061 -0.6805362372 -1.4619727700
H  -0.6048780479 -1.3917794755  1.3324511211
H   0.6617242831  0.9030320472  0.2909349937
H  -2.5838519671 -2.0677519555  0.2507274115
H  -2.0658637340 -1.5099071036 -1.2395406107
H  -0.3850956103  2.4002148465  0.9891402227
H  -1.6285083780  1.3171056652  1.6833294552
H   2.7584596397  0.2910069455  1.5203220344
H   1.7217862856  0.7315464321 -2.0338562327
H   2.4337081510 -1.4056387875  1.1360785472
H   1.2716182944 -0.4457012774  2.0800834697
H   2.8429491027  1.2982046051 -0.8113020519
H   2.9568904890 -0.3678062196 -1.3859624111
22
Image 19  Energy = -383.5275379770
C  -0.7752629034 -1.0471068217  0.3216635165
C   1.3044560391  0.0466087025 -0.0311315078
C  -0.9755259960  1.4703074386  0.8310436761
C   1.9788971869 -0.4207456395  1.2462428304
C   2.2629964488  0.4334616516 -1.1324928781
N   0.3010281858 -0.8927519522 -0.5075885387
N  -1.9979607636 -1.4053402150 -0.2372014326
O  -1.6475136241  1.6350345160 -0.4022217910
H  -2.2386347176  0.8754880742 -0.4592338405
H   0.0247640747 -0.6802801390 -1.4612358046
H  -0.6047093923 -1.3911863624  1.3317341390
H   0.6640754524  0.9031026365  0.2895479583
H  -2.5823738642 -2.0667181556  0.2514161841
H  -2.0644386765 -1.5094650249 -1.2390487455
H  -0.3855938259  2.3952116061  0.9889462690
H  -1.6307700556  1.3179245005  1.6837457679
H   2.7586321268  0.2909069735  1.5202345294
H   1.7218399428  0.7313546633 -2.0338679087
H   2.4338509964 -1.4060667548  1.1359800747
H   1.2715816754 -0.4459817329  2.0794580838
H   2.8433699099  1.2981407665 -0.8112837311
H   2.9571987711 -0.3682587449 -1.3862418188
22
Image 20  Energy = -383.5129279865
C  -0.7494074730 -1.2383623839  0.2737809518
C   1.2829732016  0.0419555739 -0.0247714765
C  -0.9004651232  1.6253030257  0.8450986548
C   1.9653160230 -0.4183858398  1.2497645229
C   2.2433001669  0.4408091164 -1.1231045974
N   0.2919835330 -0.8997559444 -0.5200929879
N  -1.9867179895 -1.5035901332 -0.2598604844
O  -1.5913027478  1.6464878723 -0.4100059078
H  -2.1832442335  0.8832928038 -0.4010099465
H   0.0234198322 -0.6953042374 -1.4763219181
H  -0.5945631189 -1.4411092536  1.3247955891
H   0.5840847706  0.8786613421  0.3250281541
H  -2.6229585445 -2.1138526319  0.2322783535
H  -2.1124276534 -1.5271732614 -1.2661511741
H  -0.4039902623  2.5952116061  0.9907584178
H  -1.5491988129  1.3469508598  1.6784205637
H   2.7464438538  0.2960613421  1.5162440884
H   1.7116490488  0.7373516401 -2.0310250102
H   2.4280560246 -1.4010759548  1.1418605870
H   1.2659466727 -0.4386613934  2.0908165818
H   2.8246253867  1.3058890334 -0.8022369731
H   2.9463844365 -0.3570632407 -1.3758009075
22
Image 21  Energy = -383.5138017229
C  -0.7472853498 -1.2343696238  0.2783742510
C   1.2812335960  0.0420695651 -0.0244471195
C  -0.9072399846  1.6248100301  0.8427867915
C   1.9656774378 -0.4187997466  1.2494856837
C   2.2435551688  0.4408944923 -1.1230571363
N   0.2931702771 -0.9018239392 -0.5213494634
N  -1.9917408673 -1.5030666870 -0.2628655883
O  -1.5892878671  1.6461929448 -0.4062716172
H  -2.1825985847  0.8836703459 -0.4011241107
H   0.0235804266 -0.6951525334 -1.4756180332
H  -0.5943506839 -1.4414684550  1.3227462638
H   0.5878449536  0.8798307817  0.3239164820
H  -2.6207803423 -2.1134014995  0.2320874186
H  -2.1107628929 -1.5273857696 -1.2638109060
H  -0.4048599263  2.5923781400  0.9903194020
H  -1.5488707641  1.3483975552  1.6781648525
H   2.7462932699  0.2959666486  1.5159399407
H   1.7114848242  0.7371038402 -2.0308381610
H   2.4280011724 -1.4015426885  1.1418121730
H   1.2658957188 -0.4391231394  2.0901320042
H   2.8246727953  1.3057704212 -0.8020364697
H   2.9462746125 -0.3573107408 -1.3758815725
22
Image 22  Energy = -383.5144112583
C  -0.7480417467 -1.2308385899  0.2806241375
C   1.2798040993  0.0423350582 -0.0243333554
C  -0.9132560280  1.6255729441  0.8409767025
C   1.9659004794 -0.4191780883  1.2492411502
C   2.2436129829  0.4410034923 -1.1228654027
N   0.2951081186 -0.9038122885 -0.5223552918
N  -1.9938583175 -1.5011399253 -0.2631913591
O  -1.5877832556  1.6457447266 -0.4032320702
H  -2.1819830741  0.8839313869 -0.4013160943
H   0.0235833961 -0.6949628851 -1.4751660940
H  -0.5939215157 -1.4421963242  1.3221171708
H   0.5918799026  0.8807989837  0.3226319397
H  -2.6193597407 -2.1136131049  0.2320786918
H  -2.1094085460 -1.5278868862 -1.2632999011
H  -0.4056343279  2.5893001981  0.9897927219
H  -1.5489641793  1.3493211194  1.6783314610
H   2.7461853107  0.2958944552  1.5156431750
H   1.7113430626  0.7368587600 -2.0306649482
H   2.4279399788 -1.4020007516  1.1417085465
H   1.2658922490 -0.4396293369  2.0894863150
H   2.8247711438  1.3056947432 -0.8018400258
H   2.9460969948 -0.3575577448 -1.3759023837
22
Image 23  Energy = -383.5149466521
C  -0.7491520099 -1.2274019512  0.2822530188
C   1.2787299615  0.0426815910 -0.0242568779
C  -0.9187240939  1.6268478987  0.8397632070
C   1.9660597312 -0.4195151483  1.2489898887
C   2.2435929961  0.4411179207 -1.1226283049
N   0.2969341415 -0.9059243697 -0.5232034838
N  -1.9954641461 -1.4988142659 -0.2630224676
O  -1.5867450802  1.6452917219 -0.4009361494
H  -2.1814347017  0.8840637614 -0.4015493319
H   0.0235583625 -0.6947396201 -1.4748295728
H  -0.5934737285 -1.4430775899  1.3219380446
H   0.5960436758  0.8816718217  0.3212323412
H  -2.6181532939 -2.1140079647  0.2320877642
H  -2.1081173441 -1.5285013594 -1.2631539118
H  -0.4062341739  2.5863345930  0.9892323417
H  -1.5493514467  1.3499121713  1.6787566910
H   2.7460984219  0.2958252815  1.5153557244
H   1.7112188110  0.7366215255 -2.0304988000
H   2.4278693040 -1.4024395857  1.1415595811
H   1.2659045613 -0.4401638408  2.0888907921
H   2.8248971556  1.3056432915 -0.8016465179
H   2.9458498835 -0.3577859412 -1.3758688917
22
Image 24  Energy = -383.5154336986
C  -0.7502694227 -1.2240414849  0.2836639887
C   1.2779572639  0.0430112664 -0.0242032608
C  -0.9237891946  1.6283316980  0.8390253643
C   1.9661945232 -0.4198201593  1.2487368125
C   2.2435531820  0.4412318990 -1.1223886015
N   0.2985820059 -0.9080744110 -0.5239483808
N  -1.9969536209 -1.4963161433 -0.2627325203
O  -1.5860634680  1.6448937675 -0.3992446674
H  -2.1809742743  0.8840559297 -0.4018121165
H   0.0235295297 -0.6945000516 -1.4745452762
H  -0.5930482080 -1.4440430268  1.3219348479
H   0.6002465786  0.8824987658  0.3197508143
H  -2.6170267383 -2.1144602151  0.2320707596
H  -2.1068429764 -1.5291853159 -1.2630852903
H  -0.4066455638  2.5836027570  0.9886690056
H  -1.5499729312  1.3502662808  1.6793669074
H   2.7460255787  0.2957514494  1.5150799502
H   1.7111073026  0.7363946031 -2.0303365374
H   2.4277890472 -1.4028530400  1.1413716017
H   1.2659230617 -0.4407166889  2.0883400900
H   2.8250400451  1.3056061442 -0.8014580938
H   2.9455452657 -0.3579940829 -1.3757903131
22
Image 25  Energy = -383.5124017400
C  -0.7483580148 -1.2461678001  0.2717866766
C   1.2821465462  0.0417601162 -0.0245192331
C  -0.8972767028  1.6314967067  0.8457037286
C   1.9647656182 -0.4182802164  1.2499144192
C   2.2425087348  0.4411010786 -1.1227341419
N   0.2915596684 -0.8999620161 -0.5205598734
N  -1.9861995287 -1.5075860074 -0.2607530318
O  -1.5890873521  1.6469574245 -0.4103913199
H  -2.1810428392  0.8836010534 -0.3986719017
H   0.0233678003 -0.6959140973 -1.4769375499
H  -0.5941684395 -1.4430796641  1.3245333439
H   0.5807510464  0.8776551486  0.3264931937
H  -2.6246265453 -2.1157346548  0.2315156365
H  -2.1143918923 -1.5278640861 -1.2672580125
H  -0.4047065390  2.6033138184  0.9908489824
H  -1.5459161539  1.3480908099  1.6781907087
H   2.7459596484  0.2962713684  1.5160933541
H   1.7112444344  0.7375995334 -2.0309180348
H   2.4278262887 -1.4008629552  1.1421007900
H   1.2657198907 -0.4383516436  2.0912910637
H   2.8238722013  1.3062033250 -0.8018799906
H   2.9459591210 -0.3566073027 -1.3753837244
22
Image 26  Energy = -383.5133393231
C  -0.7459464169 -1.2421847295  0.2765875062
C   1.2802856484  0.0418518906 -0.0241821089
C  -0.9042725200  1.6309046288  0.8432404043
C   1.9651250524 -0.4186932923  1.2496365640
C   2.2427541101  0.4412052115 -1.1226735454
N   0.2927292124 -0.9021167834 -0.5218354322
N  -1.9915315191 -1.5071028902 -0.2639679473
O  -1.5869377483  1.6466823133 -0.4064766363
H  -2.1803242915  0.8840280586 -0.3987390924
H   0.0235325349 -0.6957605380 -1.4762319355
H  -0.5939796409 -1.4434304245  1.3223384082
H   0.5845547317  0.8789118206  0.3254114493
H  -2.6223833245 -2.1152760385  0.2312804159
H  -2.1126921896 -1.5280983205 -1.2647677898
H  -0.4056106188  2.6005010778  0.9903942575
H  -1.5454301768  1.3496121965  1.6778631889
H   2.7457952534  0.2961779581  1.5157804043
H   1.7110692232  0.7373480071 -2.0307214032
H   2.4277618419 -1.4013322893  1.1420540809
H   1.2656696163 -0.4388225839  2.0906023315
H   2.8239057656  1.3060832653 -0.8016723827
H   2.9458324479 -0.3568485992 -1.3754556542
22
Image 27  Energy = -383.5139777021
C  -0.7466691443 -1.2387279164  0.2788993608
C   1.2787442935  0.0421179766 -0.0240559126
C  -0.9104593606  1.6316762678  0.8412895441
C   1.9653398205 -0.4190735473  1.2493922238
C   2.2427888508  0.4413292862 -1.1224622341
N   0.2947371623 -0.9041548515 -0.5228934346
N  -1.9937317314 -1.5051367626 -0.2643185314
O  -1.5853157495  1.6462417321 -0.4032796108
H  -2.1796394732  0.8843288399 -0.3988901480
H   0.0235320739 -0.6955751759 -1.4757747783
H  -0.5935567780 -1.4441573631  1.3216640727
H   0.5886522488  0.8799399771  0.3241428162
H  -2.6209461947 -2.1155174988  0.2312417494
H  -2.1113289337 -1.5286302318 -1.2642290618
H  -0.4064263980  2.5974049238  0.9898441465
H  -1.5453906744  1.3505764687  1.6779873377
H   2.7456751249  0.2961094456  1.5154741412
H   1.7109168892  0.7370996389 -2.0305397729
H   2.4276901341 -1.4017918310  1.1419507374
H   1.2656680687 -0.4393402055  2.0899542186
H   2.8239924372  1.3060098064 -0.8014670597
H   2.9456343253 -0.3570890411 -1.3754647190
22
Image 28  Energy = -383.5145340626
C  -0.7477736766 -1.2353737761  0.2805407496
C   1.2775769892  0.0424836325 -0.0239626995
C  -0.9160663034  1.6330066329  0.8399693388
C   1.9654874518 -0.4194130454  1.2491392464
C   2.2427405239  0.4414581380 -1.1222023710
N   0.2966305861 -0.9063244250 -0.5237889105
N  -1.9953904191 -1.5027556471 -0.2641420438
O  -1.5841824335  1.6457899898 -0.4008647521
H  -2.1790248095  0.8844946318 -0.3990851214
H   0.0235011975 -0.6953556821 -1.4754390091
H  -0.5931109162 -1.4450414057  1.3214772508
H   0.5928898145  0.8808559996  0.3227495180
H  -2.6197331759 -2.1159492887  0.2312230845
H  -2.1100327174 -1.5292782264 -1.2640799660
H  -0.4070654739  2.5944160086  0.9892563813
H  -1.5456585927  1.3511889985  1.6783849347
H   2.7455760760  0.2960446921  1.5151765687
H   1.7107821124  0.7368597113 -2.0303660684
H   2.4276083219 -1.4022316277  1.1418006869
H   1.2656823289 -0.4398874563  2.0893586783
H   2.8241071884  1.3059620898 -0.8012637310
H   2.9453629203 -0.3573100069 -1.3754166779
22
Image 29  Energy = -383.5150375593
C  -0.7488885503 -1.2320988120  0.2819465610
C   1.2767285632  0.0428405569 -0.0238899479
C  -0.9212487536  1.6345672966  0.8391570719